62
* (null), Energy   -1000.0000000
H     1.188216    1.502319   -0.891011   -0.081472   -0.031554   -0.160142
O     0.842174    2.607842    0.340581    0.036558   -0.046262   -0.083788
O     1.190200    0.476909    2.056759    0.099890   -0.031388   -0.111628
O     3.035365   -1.551076    2.085432    0.000198   -0.109662    0.004824
O     0.588827   -2.896456    1.625100   -0.001504    0.006926   -0.035676
O     4.080982    1.230908   -0.962466   -0.283178    0.084996    0.779604
O     4.825408   -1.188216   -0.107286    0.009500   -0.074090    0.036792
O     3.454826   -2.921476   -1.772575   -0.005084    0.003204   -0.018980
O     1.175092   -1.760015   -0.866360   -0.021524   -0.009716   -0.052380
O     1.431053    0.872172   -1.615221   -0.082552   -0.027006   -0.160276
O    -0.970926    1.001751   -2.829330   -0.103218   -0.012786   -0.080174
O    -1.461171   -1.463512   -1.553064   -0.029434   -0.007700   -0.037926
O    -3.489436   -3.092354   -0.847077   -0.011732   -0.002406    0.016972
O    -1.928419    2.141757   -0.374015    0.020074   -0.003386   -0.035112
O    -1.171688   -0.174268    0.815893    0.023308   -0.001370   -0.037552
O    -2.675767   -1.522736    2.652623    0.038510    0.025976   -0.003270
O    -1.913453   -3.947977    1.429588    0.002598    0.009538    0.006446
O    -4.514991    1.476676   -0.035113    0.023316    0.020430    0.013422
O    -4.752446   -1.090581    0.808770    0.020764    0.021846    0.015422
H    -5.214392    1.957089    0.407017    0.018408    0.022364    0.003436
H    -4.602805    0.538269    0.249996    0.019458    0.020914    0.013440
H    -4.276367   -1.246462    1.638101    0.029034    0.024116    0.011026
H    -4.457758   -1.798434    0.214701    0.007692    0.015376    0.016742
H    -0.221514   -3.438933    1.498356   -0.005388    0.007762   -0.018912
H     0.730895   -2.443029    0.773649   -0.010088   -0.001444   -0.041738
H    -0.112627    2.758720    0.288753    0.044286    0.006732   -0.070452
H     0.986273    2.014756    1.100590    0.013418   -0.077692   -0.103436
H    -2.897529    2.056293   -0.234718    0.022534    0.009270   -0.008884
H    -1.766652    1.912494   -1.302529   -0.012910   -0.005344   -0.040832
H    -2.407153   -3.926091    0.597987   -0.006152    0.009094    0.011344
H    -2.291965   -3.210068    1.940856    0.012600    0.013334    0.008052
H    -2.157382   -0.973015    2.027921    0.038608    0.016382   -0.011434
H    -2.142851   -1.527660    3.457691    0.034158    0.039476   -0.000884
H    -2.803771   -2.536647   -1.276726   -0.018452   -0.005984    0.001068
H    -3.934451   -3.585239   -1.536892   -0.024152   -0.006232    0.027656
H    -1.479630   -0.718773   -2.177332   -0.056758   -0.013704   -0.044602
H    -1.379919   -1.038079   -0.667180   -0.011786   -0.001272   -0.043680
H    -0.297615   -0.045912    1.243213    0.038542   -0.019644   -0.067978
H    -1.452831    0.711107    0.493933    0.031514    0.001172   -0.039408
H    -0.024282    1.004684   -2.552194   -0.090564   -0.020534   -0.119796
H    -1.013227    1.357085   -3.717495   -0.137778   -0.012124   -0.078296
H     3.703064   -1.535518    1.381360    0.048134   -0.178090    0.049144
H     2.475863   -2.323098    1.927742   -0.034606   -0.085262    0.000292
H     3.997986    1.951652   -0.334788   -0.882774   -0.415098    1.280222
H     3.191120    1.139540   -1.362318   -0.063700    0.042954    0.314694
H     4.599609   -0.267653   -0.392990   -0.120494   -0.036584    0.251020
H     5.770335   -1.206601    0.051059    0.021778    0.005248   -0.027844
H     1.893954   -2.275814   -1.287667   -0.011070   -0.005124   -0.040930
H     0.339649   -1.921162   -1.339216   -0.016842   -0.029296   -0.052602
H     3.749086   -2.863538   -2.681914    0.009726   -0.006992   -0.014662
H     4.064075   -2.369258   -1.247471   -0.001514   -0.009366   -0.009350
H     1.908727   -0.184974    1.957519    0.060380   -0.077800   -0.094888
H     1.057463    0.523407    3.019507    0.114408    0.009998   -0.110784
H     1.359469   -0.034298   -1.246713   -0.063438   -0.023420   -0.148928
C     1.594101   -0.748618    5.331492    0.109544    0.069824   -0.098346
O     1.530357    0.348555    4.844547    0.098928    0.057276   -0.127502
C     0.797150   -1.948161    4.892114    0.090610    0.060476   -0.037776
O    -0.147111   -1.674251    3.912399    0.059278    0.033340   -0.015772
H     2.274628   -0.942837    6.185484    0.138702    0.094234   -0.116360
H     0.154183   -2.036161    3.049096    0.035194    0.020188   -0.017430
H     1.523341   -2.710428    4.576892    0.079360    0.049884   -0.037544
H     0.312206   -2.347448    5.793920    0.118402    0.089336   -0.010110
62
* Frequency(6)  -34.9500
H     1.178957    1.498733   -0.909210   -0.081472   -0.031554   -0.160142
O     0.846329    2.602585    0.331059    0.036558   -0.046262   -0.083788
O     1.201552    0.473342    2.044073    0.099890   -0.031388   -0.111628
O     3.035388   -1.563539    2.085980    0.000198   -0.109662    0.004824
O     0.588656   -2.895669    1.621046   -0.001504    0.006926   -0.035676
O     4.048800    1.240567   -0.873868   -0.283178    0.084996    0.779604
O     4.826488   -1.196636   -0.103105    0.009500   -0.074090    0.036792
O     3.454248   -2.921112   -1.774732   -0.005084    0.003204   -0.018980
O     1.172646   -1.761119   -0.872313   -0.021524   -0.009716   -0.052380
O     1.421671    0.869103   -1.633436   -0.082552   -0.027006   -0.160276
O    -0.982656    1.000298   -2.838441   -0.103218   -0.012786   -0.080174
O    -1.464516   -1.464387   -1.557374   -0.029434   -0.007700   -0.037926
O    -3.490769   -3.092627   -0.845148   -0.011732   -0.002406    0.016972
O    -1.926138    2.141372   -0.378005    0.020074   -0.003386   -0.035112
O    -1.169039   -0.174424    0.811625    0.023308   -0.001370   -0.037552
O    -2.671391   -1.519784    2.652251    0.038510    0.025976   -0.003270
O    -1.913158   -3.946893    1.430321    0.002598    0.009538    0.006446
O    -4.512341    1.478998   -0.033588    0.023316    0.020430    0.013422
O    -4.750086   -1.088098    0.810523    0.020764    0.021846    0.015422
H    -5.212300    1.959631    0.407407    0.018408    0.022364    0.003436
H    -4.600594    0.540646    0.251523    0.019458    0.020914    0.013440
H    -4.273067   -1.243721    1.639354    0.029034    0.024116    0.011026
H    -4.456884   -1.796687    0.216604    0.007692    0.015376    0.016742
H    -0.222126   -3.438051    1.496207   -0.005388    0.007762   -0.018912
H     0.729749   -2.443193    0.768906   -0.010088   -0.001444   -0.041738
H    -0.107594    2.759485    0.280746    0.044286    0.006732   -0.070452
H     0.987798    2.005927    1.088835    0.013418   -0.077692   -0.103436
H    -2.894968    2.057346   -0.235728    0.022534    0.009270   -0.008884
H    -1.768119    1.911887   -1.307169   -0.012910   -0.005344   -0.040832
H    -2.407852   -3.925058    0.599276   -0.006152    0.009094    0.011344
H    -2.290533   -3.208553    1.941771    0.012600    0.013334    0.008052
H    -2.152994   -0.971153    2.026622    0.038608    0.016382   -0.011434
H    -2.138969   -1.523174    3.457591    0.034158    0.039476   -0.000884
H    -2.805868   -2.537327   -1.276605   -0.018452   -0.005984    0.001068
H    -3.937196   -3.585947   -1.533749   -0.024152   -0.006232    0.027656
H    -1.486080   -0.720330   -2.182401   -0.056758   -0.013704   -0.044602
H    -1.381258   -1.038224   -0.672144   -0.011786   -0.001272   -0.043680
H    -0.293235   -0.048144    1.235488    0.038542   -0.019644   -0.067978
H    -1.449250    0.711240    0.489454    0.031514    0.001172   -0.039408
H    -0.034574    1.002350   -2.565808   -0.090564   -0.020534   -0.119796
H    -1.028885    1.355707   -3.726393   -0.137778   -0.012124   -0.078296
H     3.708534   -1.555757    1.386945    0.048134   -0.178090    0.049144
H     2.471930   -2.332788    1.927775   -0.034606   -0.085262    0.000292
H     3.897663    1.904478   -0.189297   -0.882774   -0.415098    1.280222
H     3.183881    1.144421   -1.326555   -0.063700    0.042954    0.314694
H     4.585915   -0.271811   -0.364463   -0.120494   -0.036584    0.251020
H     5.772810   -1.206005    0.047895    0.021778    0.005248   -0.027844
H     1.892696   -2.276396   -1.292318   -0.011070   -0.005124   -0.040930
H     0.337735   -1.924491   -1.345194   -0.016842   -0.029296   -0.052602
H     3.750191   -2.864333   -2.683580    0.009726   -0.006992   -0.014662
H     4.063903   -2.370322   -1.248534   -0.001514   -0.009366   -0.009350
H     1.915589   -0.193816    1.946735    0.060380   -0.077800   -0.094888
H     1.070465    0.524543    3.006917    0.114408    0.009998   -0.110784
H     1.352260   -0.036960   -1.263638   -0.063438   -0.023420   -0.148928
C     1.606550   -0.740683    5.320315    0.109544    0.069824   -0.098346
O     1.541600    0.355064    4.830057    0.098928    0.057276   -0.127502
C     0.807447   -1.941288    4.887821    0.090610    0.060476   -0.037776
O    -0.140374   -1.670462    3.910607    0.059278    0.033340   -0.015772
H     2.290391   -0.932128    6.172260    0.138702    0.094234   -0.116360
H     0.158183   -2.033867    3.047115    0.035194    0.020188   -0.017430
H     1.532360   -2.704759    4.572625    0.079360    0.049884   -0.037544
H     0.325662   -2.337295    5.792771    0.118402    0.089336   -0.010110
62
* Frequency(6)  -34.9500
H     1.170702    1.495536   -0.925437   -0.081472   -0.031554   -0.160142
O     0.850033    2.597897    0.322569    0.036558   -0.046262   -0.083788
O     1.211674    0.470161    2.032762    0.099890   -0.031388   -0.111628
O     3.035408   -1.574651    2.086469    0.000198   -0.109662    0.004824
O     0.588504   -2.894967    1.617431   -0.001504    0.006926   -0.035676
O     4.020106    1.249180   -0.794871   -0.283178    0.084996    0.779604
O     4.827450   -1.204143   -0.099377    0.009500   -0.074090    0.036792
O     3.453733   -2.920787   -1.776655   -0.005084    0.003204   -0.018980
O     1.170465   -1.762104   -0.877620   -0.021524   -0.009716   -0.052380
O     1.413306    0.866366   -1.649676   -0.082552   -0.027006   -0.160276
O    -0.993115    0.999002   -2.846565   -0.103218   -0.012786   -0.080174
O    -1.467499   -1.465167   -1.561217   -0.029434   -0.007700   -0.037926
O    -3.491958   -3.092871   -0.843428   -0.011732   -0.002406    0.016972
O    -1.924104    2.141029   -0.381563    0.020074   -0.003386   -0.035112
O    -1.166677   -0.174563    0.807820    0.023308   -0.001370   -0.037552
O    -2.667488   -1.517152    2.651920    0.038510    0.025976   -0.003270
O    -1.912894   -3.945927    1.430974    0.002598    0.009538    0.006446
O    -4.509979    1.481068   -0.032228    0.023316    0.020430    0.013422
O    -4.747982   -1.085885    0.812085    0.020764    0.021846    0.015422
H    -5.210435    1.961897    0.407756    0.018408    0.022364    0.003436
H    -4.598622    0.542765    0.252885    0.019458    0.020914    0.013440
H    -4.270125   -1.241278    1.640471    0.029034    0.024116    0.011026
H    -4.456104   -1.795129    0.218300    0.007692    0.015376    0.016742
H    -0.222672   -3.437264    1.494290   -0.005388    0.007762   -0.018912
H     0.728726   -2.443339    0.764676   -0.010088   -0.001444   -0.041738
H    -0.103107    2.760167    0.273608    0.044286    0.006732   -0.070452
H     0.989158    1.998054    1.078354    0.013418   -0.077692   -0.103436
H    -2.892685    2.058286   -0.236628    0.022534    0.009270   -0.008884
H    -1.769427    1.911345   -1.311307   -0.012910   -0.005344   -0.040832
H    -2.408476   -3.924136    0.600426   -0.006152    0.009094    0.011344
H    -2.289256   -3.207202    1.942587    0.012600    0.013334    0.008052
H    -2.149082   -0.969493    2.025463    0.038608    0.016382   -0.011434
H    -2.135508   -1.519174    3.457501    0.034158    0.039476   -0.000884
H    -2.807738   -2.537933   -1.276496   -0.018452   -0.005984    0.001068
H    -3.939643   -3.586579   -1.530947   -0.024152   -0.006232    0.027656
H    -1.491832   -0.721719   -2.186920   -0.056758   -0.013704   -0.044602
H    -1.382453   -1.038352   -0.676570   -0.011786   -0.001272   -0.043680
H    -0.289329   -0.050135    1.228599    0.038542   -0.019644   -0.067978
H    -1.446056    0.711359    0.485461    0.031514    0.001172   -0.039408
H    -0.043751    1.000270   -2.577947   -0.090564   -0.020534   -0.119796
H    -1.042846    1.354479   -3.734327   -0.137778   -0.012124   -0.078296
H     3.713412   -1.573803    1.391925    0.048134   -0.178090    0.049144
H     2.468424   -2.341427    1.927805   -0.034606   -0.085262    0.000292
H     3.808212    1.862417   -0.059573   -0.882774   -0.415098    1.280222
H     3.177426    1.148774   -1.294667   -0.063700    0.042954    0.314694
H     4.573706   -0.275518   -0.339027   -0.120494   -0.036584    0.251020
H     5.775017   -1.205473    0.045073    0.021778    0.005248   -0.027844
H     1.891574   -2.276916   -1.296466   -0.011070   -0.005124   -0.040930
H     0.336028   -1.927460   -1.350524   -0.016842   -0.029296   -0.052602
H     3.751177   -2.865041   -2.685066    0.009726   -0.006992   -0.014662
H     4.063750   -2.371271   -1.249481   -0.001514   -0.009366   -0.009350
H     1.921707   -0.201699    1.937121    0.060380   -0.077800   -0.094888
H     1.082058    0.525556    2.995691    0.114408    0.009998   -0.110784
H     1.345831   -0.039333   -1.278729   -0.063438   -0.023420   -0.148928
C     1.617650   -0.733608    5.310350    0.109544    0.069824   -0.098346
O     1.551624    0.360868    4.817137    0.098928    0.057276   -0.127502
C     0.816629   -1.935160    4.883993    0.090610    0.060476   -0.037776
O    -0.134368   -1.667084    3.909008    0.059278    0.033340   -0.015772
H     2.304445   -0.922579    6.160470    0.138702    0.094234   -0.116360
H     0.161749   -2.031821    3.045349    0.035194    0.020188   -0.017430
H     1.540401   -2.699704    4.568821    0.079360    0.049884   -0.037544
H     0.337659   -2.328243    5.791747    0.118402    0.089336   -0.010110
62
* Frequency(6)  -34.9500
H     1.164344    1.493073   -0.937934   -0.081472   -0.031554   -0.160142
O     0.852886    2.594287    0.316030    0.036558   -0.046262   -0.083788
O     1.219469    0.467712    2.024051    0.099890   -0.031388   -0.111628
O     3.035423   -1.583208    2.086845    0.000198   -0.109662    0.004824
O     0.588386   -2.894427    1.614647   -0.001504    0.006926   -0.035676
O     3.998009    1.255813   -0.734036   -0.283178    0.084996    0.779604
O     4.828192   -1.209925   -0.096506    0.009500   -0.074090    0.036792
O     3.453336   -2.920537   -1.778136   -0.005084    0.003204   -0.018980
O     1.168785   -1.762862   -0.881708   -0.021524   -0.009716   -0.052380
O     1.406865    0.864259   -1.662183   -0.082552   -0.027006   -0.160276
O    -1.001170    0.998005   -2.852822   -0.103218   -0.012786   -0.080174
O    -1.469795   -1.465768   -1.564177   -0.029434   -0.007700   -0.037926
O    -3.492874   -3.093059   -0.842104   -0.011732   -0.002406    0.016972
O    -1.922537    2.140765   -0.384303    0.020074   -0.003386   -0.035112
O    -1.164859   -0.174669    0.804890    0.023308   -0.001370   -0.037552
O    -2.664483   -1.515125    2.651665    0.038510    0.025976   -0.003270
O    -1.912692   -3.945182    1.431477    0.002598    0.009538    0.006446
O    -4.508159    1.482662   -0.031180    0.023316    0.020430    0.013422
O    -4.746362   -1.084180    0.813289    0.020764    0.021846    0.015422
H    -5.208998    1.963642    0.408024    0.018408    0.022364    0.003436
H    -4.597104    0.544397    0.253934    0.019458    0.020914    0.013440
H    -4.267860   -1.239396    1.641332    0.029034    0.024116    0.011026
H    -4.455504   -1.793929    0.219607    0.007692    0.015376    0.016742
H    -0.223093   -3.436659    1.492815   -0.005388    0.007762   -0.018912
H     0.727939   -2.443452    0.761419   -0.010088   -0.001444   -0.041738
H    -0.099651    2.760693    0.268110    0.044286    0.006732   -0.070452
H     0.990205    1.991992    1.070282    0.013418   -0.077692   -0.103436
H    -2.890926    2.059009   -0.237321    0.022534    0.009270   -0.008884
H    -1.770435    1.910928   -1.314493   -0.012910   -0.005344   -0.040832
H    -2.408956   -3.923426    0.601311   -0.006152    0.009094    0.011344
H    -2.288273   -3.206161    1.943215    0.012600    0.013334    0.008052
H    -2.146070   -0.968215    2.024571    0.038608    0.016382   -0.011434
H    -2.132842   -1.516093    3.457432    0.034158    0.039476   -0.000884
H    -2.809178   -2.538400   -1.276413   -0.018452   -0.005984    0.001068
H    -3.941528   -3.587065   -1.528789   -0.024152   -0.006232    0.027656
H    -1.496261   -0.722788   -2.190401   -0.056758   -0.013704   -0.044602
H    -1.383372   -1.038452   -0.679979   -0.011786   -0.001272   -0.043680
H    -0.286322   -0.051668    1.223295    0.038542   -0.019644   -0.067978
H    -1.443597    0.711450    0.482386    0.031514    0.001172   -0.039408
H    -0.050818    0.998667   -2.587295   -0.090564   -0.020534   -0.119796
H    -1.053597    1.353533   -3.740436   -0.137778   -0.012124   -0.078296
H     3.717168   -1.587700    1.395760    0.048134   -0.178090    0.049144
H     2.465723   -2.348080    1.927828   -0.034606   -0.085262    0.000292
H     3.739326    1.830025    0.040328   -0.882774   -0.415098    1.280222
H     3.172455    1.152126   -1.270110   -0.063700    0.042954    0.314694
H     4.564303   -0.278372   -0.319439   -0.120494   -0.036584    0.251020
H     5.776716   -1.205063    0.042900    0.021778    0.005248   -0.027844
H     1.890710   -2.277315   -1.299660   -0.011070   -0.005124   -0.040930
H     0.334714   -1.929746   -1.354629   -0.016842   -0.029296   -0.052602
H     3.751936   -2.865587   -2.686210    0.009726   -0.006992   -0.014662
H     4.063631   -2.372002   -1.250211   -0.001514   -0.009366   -0.009350
H     1.926419   -0.207770    1.929716    0.060380   -0.077800   -0.094888
H     1.090985    0.526336    2.987046    0.114408    0.009998   -0.110784
H     1.340881   -0.041160   -1.290350   -0.063438   -0.023420   -0.148928
C     1.626198   -0.728159    5.302676    0.109544    0.069824   -0.098346
O     1.559344    0.365337    4.807188    0.098928    0.057276   -0.127502
C     0.823699   -1.930441    4.881045    0.090610    0.060476   -0.037776
O    -0.129742   -1.664482    3.907778    0.059278    0.033340   -0.015772
H     2.315269   -0.915226    6.151390    0.138702    0.094234   -0.116360
H     0.164495   -2.030246    3.043989    0.035194    0.020188   -0.017430
H     1.546594   -2.695812    4.565891    0.079360    0.049884   -0.037544
H     0.346899   -2.321272    5.790958    0.118402    0.089336   -0.010110
62
* Frequency(6)  -34.9500
H     1.160573    1.491613   -0.945346   -0.081472   -0.031554   -0.160142
O     0.854578    2.592146    0.312153    0.036558   -0.046262   -0.083788
O     1.224092    0.466259    2.018885    0.099890   -0.031388   -0.111628
O     3.035432   -1.588283    2.087069    0.000198   -0.109662    0.004824
O     0.588317   -2.894106    1.612995   -0.001504    0.006926   -0.035676
O     3.984903    1.259746   -0.697954   -0.283178    0.084996    0.779604
O     4.828631   -1.213354   -0.094803    0.009500   -0.074090    0.036792
O     3.453101   -2.920389   -1.779015   -0.005084    0.003204   -0.018980
O     1.167789   -1.763312   -0.884132   -0.021524   -0.009716   -0.052380
O     1.403044    0.863009   -1.669601   -0.082552   -0.027006   -0.160276
O    -1.005947    0.997413   -2.856532   -0.103218   -0.012786   -0.080174
O    -1.471158   -1.466125   -1.565932   -0.029434   -0.007700   -0.037926
O    -3.493417   -3.093170   -0.841319   -0.011732   -0.002406    0.016972
O    -1.921608    2.140608   -0.385928    0.020074   -0.003386   -0.035112
O    -1.163780   -0.174733    0.803152    0.023308   -0.001370   -0.037552
O    -2.662701   -1.513923    2.651514    0.038510    0.025976   -0.003270
O    -1.912572   -3.944741    1.431775    0.002598    0.009538    0.006446
O    -4.507080    1.483608   -0.030559    0.023316    0.020430    0.013422
O    -4.745401   -1.083169    0.814003    0.020764    0.021846    0.015422
H    -5.208146    1.964677    0.408183    0.018408    0.022364    0.003436
H    -4.596203    0.545365    0.254556    0.019458    0.020914    0.013440
H    -4.266516   -1.238280    1.641842    0.029034    0.024116    0.011026
H    -4.455148   -1.793217    0.220381    0.007692    0.015376    0.016742
H    -0.223342   -3.436299    1.491939   -0.005388    0.007762   -0.018912
H     0.727472   -2.443519    0.759488   -0.010088   -0.001444   -0.041738
H    -0.097601    2.761004    0.264849    0.044286    0.006732   -0.070452
H     0.990826    1.988396    1.065495    0.013418   -0.077692   -0.103436
H    -2.889883    2.059438   -0.237732    0.022534    0.009270   -0.008884
H    -1.771032    1.910681   -1.316383   -0.012910   -0.005344   -0.040832
H    -2.409240   -3.923005    0.601836   -0.006152    0.009094    0.011344
H    -2.287690   -3.205544    1.943588    0.012600    0.013334    0.008052
H    -2.144283   -0.967457    2.024042    0.038608    0.016382   -0.011434
H    -2.131262   -1.514266    3.457391    0.034158    0.039476   -0.000884
H    -2.810032   -2.538677   -1.276364   -0.018452   -0.005984    0.001068
H    -3.942646   -3.587353   -1.527509   -0.024152   -0.006232    0.027656
H    -1.498887   -0.723423   -2.192465   -0.056758   -0.013704   -0.044602
H    -1.383918   -1.038511   -0.682000   -0.011786   -0.001272   -0.043680
H    -0.284538   -0.052577    1.220149    0.038542   -0.019644   -0.067978
H    -1.442139    0.711505    0.480562    0.031514    0.001172   -0.039408
H    -0.055009    0.997717   -2.592840   -0.090564   -0.020534   -0.119796
H    -1.059974    1.352971   -3.744060   -0.137778   -0.012124   -0.078296
H     3.719395   -1.595942    1.398034    0.048134   -0.178090    0.049144
H     2.464122   -2.352027    1.927841   -0.034606   -0.085262    0.000292
H     3.698470    1.810813    0.099579   -0.882774   -0.415098    1.280222
H     3.169507    1.154114   -1.255545   -0.063700    0.042954    0.314694
H     4.558727   -0.280066   -0.307821   -0.120494   -0.036584    0.251020
H     5.777724   -1.204820    0.041612    0.021778    0.005248   -0.027844
H     1.890198   -2.277553   -1.301554   -0.011070   -0.005124   -0.040930
H     0.333935   -1.931102   -1.357063   -0.016842   -0.029296   -0.052602
H     3.752386   -2.865910   -2.686889    0.009726   -0.006992   -0.014662
H     4.063561   -2.372436   -1.250643   -0.001514   -0.009366   -0.009350
H     1.929213   -0.211371    1.925324    0.060380   -0.077800   -0.094888
H     1.096281    0.526799    2.981919    0.114408    0.009998   -0.110784
H     1.337945   -0.042244   -1.297243   -0.063438   -0.023420   -0.148928
C     1.631268   -0.724927    5.298124    0.109544    0.069824   -0.098346
O     1.563922    0.367988    4.801287    0.098928    0.057276   -0.127502
C     0.827893   -1.927642    4.879297    0.090610    0.060476   -0.037776
O    -0.126999   -1.662939    3.907048    0.059278    0.033340   -0.015772
H     2.321688   -0.910864    6.146004    0.138702    0.094234   -0.116360
H     0.166124   -2.029311    3.043182    0.035194    0.020188   -0.017430
H     1.550267   -2.693503    4.564154    0.079360    0.049884   -0.037544
H     0.352379   -2.317137    5.790490    0.118402    0.089336   -0.010110
62
* Frequency(6)  -34.9500
H     1.159798    1.491313   -0.946869   -0.081472   -0.031554   -0.160142
O     0.854926    2.591706    0.311355    0.036558   -0.046262   -0.083788
O     1.225042    0.465961    2.017823    0.099890   -0.031388   -0.111628
O     3.035434   -1.589327    2.087115    0.000198   -0.109662    0.004824
O     0.588302   -2.894040    1.612656   -0.001504    0.006926   -0.035676
O     3.982208    1.260555   -0.690537   -0.283178    0.084996    0.779604
O     4.828722   -1.214059   -0.094453    0.009500   -0.074090    0.036792
O     3.453053   -2.920358   -1.779195   -0.005084    0.003204   -0.018980
O     1.167584   -1.763404   -0.884630   -0.021524   -0.009716   -0.052380
O     1.402258    0.862752   -1.671126   -0.082552   -0.027006   -0.160276
O    -1.006929    0.997291   -2.857295   -0.103218   -0.012786   -0.080174
O    -1.471438   -1.466198   -1.566293   -0.029434   -0.007700   -0.037926
O    -3.493528   -3.093193   -0.841157   -0.011732   -0.002406    0.016972
O    -1.921417    2.140576   -0.386262    0.020074   -0.003386   -0.035112
O    -1.163558   -0.174746    0.802795    0.023308   -0.001370   -0.037552
O    -2.662335   -1.513675    2.651482    0.038510    0.025976   -0.003270
O    -1.912547   -3.944650    1.431836    0.002598    0.009538    0.006446
O    -4.506858    1.483802   -0.030431    0.023316    0.020430    0.013422
O    -4.745203   -1.082961    0.814149    0.020764    0.021846    0.015422
H    -5.207971    1.964890    0.408215    0.018408    0.022364    0.003436
H    -4.596018    0.545564    0.254684    0.019458    0.020914    0.013440
H    -4.266240   -1.238050    1.641947    0.029034    0.024116    0.011026
H    -4.455075   -1.793071    0.220541    0.007692    0.015376    0.016742
H    -0.223393   -3.436226    1.491759   -0.005388    0.007762   -0.018912
H     0.727376   -2.443533    0.759091   -0.010088   -0.001444   -0.041738
H    -0.097180    2.761068    0.264179    0.044286    0.006732   -0.070452
H     0.990953    1.987657    1.064511    0.013418   -0.077692   -0.103436
H    -2.889669    2.059526   -0.237817    0.022534    0.009270   -0.008884
H    -1.771155    1.910630   -1.316771   -0.012910   -0.005344   -0.040832
H    -2.409299   -3.922919    0.601944   -0.006152    0.009094    0.011344
H    -2.287570   -3.205417    1.943665    0.012600    0.013334    0.008052
H    -2.143915   -0.967301    2.023933    0.038608    0.016382   -0.011434
H    -2.130937   -1.513891    3.457383    0.034158    0.039476   -0.000884
H    -2.810207   -2.538734   -1.276353   -0.018452   -0.005984    0.001068
H    -3.942875   -3.587413   -1.527245   -0.024152   -0.006232    0.027656
H    -1.499427   -0.723553   -2.192889   -0.056758   -0.013704   -0.044602
H    -1.384030   -1.038523   -0.682416   -0.011786   -0.001272   -0.043680
H    -0.284171   -0.052764    1.219502    0.038542   -0.019644   -0.067978
H    -1.441839    0.711516    0.480187    0.031514    0.001172   -0.039408
H    -0.055871    0.997522   -2.593979   -0.090564   -0.020534   -0.119796
H    -1.061285    1.352856   -3.744805   -0.137778   -0.012124   -0.078296
H     3.719853   -1.597637    1.398502    0.048134   -0.178090    0.049144
H     2.463792   -2.352838    1.927844   -0.034606   -0.085262    0.000292
H     3.690070    1.806864    0.111759   -0.882774   -0.415098    1.280222
H     3.168901    1.154523   -1.252551   -0.063700    0.042954    0.314694
H     4.557580   -0.280414   -0.305433   -0.120494   -0.036584    0.251020
H     5.777931   -1.204770    0.041347    0.021778    0.005248   -0.027844
H     1.890093   -2.277601   -1.301944   -0.011070   -0.005124   -0.040930
H     0.333774   -1.931381   -1.357564   -0.016842   -0.029296   -0.052602
H     3.752478   -2.865977   -2.687028    0.009726   -0.006992   -0.014662
H     4.063547   -2.372525   -1.250732   -0.001514   -0.009366   -0.009350
H     1.929788   -0.212111    1.924422    0.060380   -0.077800   -0.094888
H     1.097369    0.526894    2.980865    0.114408    0.009998   -0.110784
H     1.337342   -0.042467   -1.298660   -0.063438   -0.023420   -0.148928
C     1.632310   -0.724263    5.297188    0.109544    0.069824   -0.098346
O     1.564864    0.368533    4.800074    0.098928    0.057276   -0.127502
C     0.828755   -1.927067    4.878938    0.090610    0.060476   -0.037776
O    -0.126435   -1.662622    3.906898    0.059278    0.033340   -0.015772
H     2.323008   -0.909968    6.144897    0.138702    0.094234   -0.116360
H     0.166459   -2.029119    3.043016    0.035194    0.020188   -0.017430
H     1.551022   -2.693028    4.563796    0.079360    0.049884   -0.037544
H     0.353505   -2.316287    5.790394    0.118402    0.089336   -0.010110
62
* Frequency(6)  -34.9500
H     1.162103    1.492205   -0.942340   -0.081472   -0.031554   -0.160142
O     0.853892    2.593014    0.313725    0.036558   -0.046262   -0.083788
O     1.222217    0.466848    2.020980    0.099890   -0.031388   -0.111628
O     3.035428   -1.586225    2.086978    0.000198   -0.109662    0.004824
O     0.588345   -2.894236    1.613665   -0.001504    0.006926   -0.035676
O     3.990218    1.258151   -0.712587   -0.283178    0.084996    0.779604
O     4.828453   -1.211963   -0.095493    0.009500   -0.074090    0.036792
O     3.453196   -2.920449   -1.778658   -0.005084    0.003204   -0.018980
O     1.168193   -1.763129   -0.883149   -0.021524   -0.009716   -0.052380
O     1.404593    0.863516   -1.666593   -0.082552   -0.027006   -0.160276
O    -1.004010    0.997653   -2.855027   -0.103218   -0.012786   -0.080174
O    -1.470605   -1.465980   -1.565220   -0.029434   -0.007700   -0.037926
O    -3.493196   -3.093125   -0.841637   -0.011732   -0.002406    0.016972
O    -1.921985    2.140672   -0.385269    0.020074   -0.003386   -0.035112
O    -1.164217   -0.174707    0.803857    0.023308   -0.001370   -0.037552
O    -2.663424   -1.514410    2.651575    0.038510    0.025976   -0.003270
O    -1.912620   -3.944920    1.431654    0.002598    0.009538    0.006446
O    -4.507518    1.483224   -0.030811    0.023316    0.020430    0.013422
O    -4.745791   -1.083579    0.813713    0.020764    0.021846    0.015422
H    -5.208492    1.964257    0.408118    0.018408    0.022364    0.003436
H    -4.596568    0.544972    0.254304    0.019458    0.020914    0.013440
H    -4.267061   -1.238732    1.641635    0.029034    0.024116    0.011026
H    -4.455293   -1.793506    0.220067    0.007692    0.015376    0.016742
H    -0.223241   -3.436445    1.492294   -0.005388    0.007762   -0.018912
H     0.727662   -2.443492    0.760271   -0.010088   -0.001444   -0.041738